; GROMOS 54A8 under the REACTION FIELD it was parametrised with, which is what
; makes this tree different from settings/gromos54a8 (that one is PME and is
; left exactly as it was). Under PME this force field scored 2KTF at -64.2
; kJ/mol against -26.1 published for it (Perthold & Oostenbrink, JCTC 2017, 13,
; 5697) and -25.1/-28 from experiment.
;
; The paper, verbatim: "Calculation of nonbonded electrostatic and Lennard-Jones
; interactions was done within a cutoff sphere of 1.4 nm. For the calculation of
; electrostatic interactions, a reaction-field contribution with a relative
; dielectric permittivity of 61 beyond the cutoff sphere was added."

define                   = -DPOSRES -DFLEXIBLE

integrator               = cg
emtol                    = 10.0
emstep                   = 0.01
nsteps                   = 5000

nstlist                  = 1
cutoff-scheme            = verlet
ns_type                  = grid
coulombtype              = Reaction-Field
epsilon_rf               = 61
epsilon_r                = 1
rlist                    = 1.4
rcoulomb                 = 1.4
rvdw                     = 1.4
pbc                      = xyz
