; GROMOS 54A8 is parametrised with a REACTION FIELD, not a lattice sum. PME here
; gave dG_bind = -64.2 kJ/mol on 2KTF against -26.1 published for this force
; field (Perthold & Oostenbrink, JCTC 2017, 13, 5697) and -25.1/-28 experiment.
; epsilon_rf = 61 and the 1.4 nm cutoff are that paper's, verbatim. Do not put
; PME back without re-deriving what the force field was fitted to.

integrator               = steep
emtol                    = 10.0
emstep                   = 0.01
nsteps                   = 50000

nstlist                  = 1
cutoff-scheme            = verlet
ns_type                  = grid
coulombtype              = Reaction-Field
epsilon_rf               = 61
epsilon_r                = 1
rlist                    = 1.4
rcoulomb                 = 1.4
rvdw                     = 1.4
pbc                      = xyz
